ITEM: TIMESTEP
0
ITEM: NUMBER OF ATOMS
500
ITEM: BOX BOUNDS pp pp pp
0.0000000000000000e+00 2.8000000000000000e+01
0.0000000000000000e+00 2.8000000000000000e+01
0.0000000000000000e+00 2.8000000000000000e+01
ITEM: ATOMS id type xs ys zs
1 1 0 0 0
2 1 0.1 0.1 0
3 1 0.1 0 0.1
4 1 0 0.1 0.1
5 1 0.2 0 0
6 1 0.3 0.1 0
7 1 0.3 0 0.1
8 1 0.2 0.1 0.1
9 1 0.4 0 0
10 1 0.5 0.1 0
11 1 0.5 0 0.1
12 1 0.4 0.1 0.1
13 1 0.6 0 0
16 1 0.6 0.1 0.1
14 1 0.7 0.1 0
15 1 0.7 0 0.1
17 1 0.8 0 0
18 1 0.9 0.1 0
19 1 0.9 0 0.1
20 1 0.8 0.1 0.1
21 1 0 0.2 0
22 1 0.1 0.3 0
23 1 0.1 0.2 0.1
24 1 0 0.3 0.1
25 1 0.2 0.2 0
26 1 0.3 0.3 0
27 1 0.3 0.2 0.1
28 1 0.2 0.3 0.1
29 1 0.4 0.2 0
30 1 0.5 0.3 0
31 1 0.5 0.2 0.1
32 1 0.4 0.3 0.1
33 1 0.6 0.2 0
36 1 0.6 0.3 0.1
34 1 0.7 0.3 0
35 1 0.7 0.2 0.1
37 1 0.8 0.2 0
38 1 0.9 0.3 0
39 1 0.9 0.2 0.1
40 1 0.8 0.3 0.1
41 1 0 0.4 0
42 1 0.1 0.5 0
43 1 0.1 0.4 0.1
44 1 0 0.5 0.1
61 1 0 0.6 0
63 1 0.1 0.6 0.1
45 1 0.2 0.4 0
46 1 0.3 0.5 0
47 1 0.3 0.4 0.1
48 1 0.2 0.5 0.1
65 1 0.2 0.6 0
67 1 0.3 0.6 0.1
49 1 0.4 0.4 0
50 1 0.5 0.5 0
51 1 0.5 0.4 0.1
52 1 0.4 0.5 0.1
53 1 0.6 0.4 0
56 1 0.6 0.5 0.1
69 1 0.4 0.6 0
71 1 0.5 0.6 0.1
73 1 0.6 0.6 0
54 1 0.7 0.5 0
55 1 0.7 0.4 0.1
75 1 0.7 0.6 0.1
57 1 0.8 0.4 0
58 1 0.9 0.5 0
59 1 0.9 0.4 0.1
60 1 0.8 0.5 0.1
77 1 0.8 0.6 0
79 1 0.9 0.6 0.1
62 1 0.1 0.7 0
64 1 0 0.7 0.1
66 1 0.3 0.7 0
68 1 0.2 0.7 0.1
70 1 0.5 0.7 0
72 1 0.4 0.7 0.1
76 1 0.6 0.7 0.1
74 1 0.7 0.7 0
78 1 0.9 0.7 0
80 1 0.8 0.7 0.1
81 1 0 0.8 0
82 1 0.1 0.9 0
83 1 0.1 0.8 0.1
84 1 0 0.9 0.1
85 1 0.2 0.8 0
86 1 0.3 0.9 0
87 1 0.3 0.8 0.1
88 1 0.2 0.9 0.1
89 1 0.4 0.8 0
90 1 0.5 0.9 0
91 1 0.5 0.8 0.1
92 1 0.4 0.9 0.1
93 1 0.6 0.8 0
96 1 0.6 0.9 0.1
94 1 0.7 0.9 0
95 1 0.7 0.8 0.1
97 1 0.8 0.8 0
98 1 0.9 0.9 0
99 1 0.9 0.8 0.1
100 1 0.8 0.9 0.1
101 1 0 0 0.2
102 1 0.1 0.1 0.2
103 1 0.1 0 0.3
104 1 0 0.1 0.3
105 1 0.2 0 0.2
106 1 0.3 0.1 0.2
107 1 0.3 0 0.3
108 1 0.2 0.1 0.3
109 1 0.4 0 0.2
110 1 0.5 0.1 0.2
111 1 0.5 0 0.3
112 1 0.4 0.1 0.3
113 1 0.6 0 0.2
116 1 0.6 0.1 0.3
114 1 0.7 0.1 0.2
115 1 0.7 0 0.3
117 1 0.8 0 0.2
118 1 0.9 0.1 0.2
119 1 0.9 0 0.3
120 1 0.8 0.1 0.3
121 1 0 0.2 0.2
122 1 0.1 0.3 0.2
123 1 0.1 0.2 0.3
124 1 0 0.3 0.3
125 1 0.2 0.2 0.2
126 1 0.3 0.3 0.2
127 1 0.3 0.2 0.3
128 1 0.2 0.3 0.3
129 1 0.4 0.2 0.2
130 1 0.5 0.3 0.2
131 1 0.5 0.2 0.3
132 1 0.4 0.3 0.3
133 1 0.6 0.2 0.2
136 1 0.6 0.3 0.3
134 1 0.7 0.3 0.2
135 1 0.7 0.2 0.3
137 1 0.8 0.2 0.2
138 1 0.9 0.3 0.2
139 1 0.9 0.2 0.3
140 1 0.8 0.3 0.3
141 1 0 0.4 0.2
142 1 0.1 0.5 0.2
143 1 0.1 0.4 0.3
144 1 0 0.5 0.3
161 1 0 0.6 0.2
163 1 0.1 0.6 0.3
145 1 0.2 0.4 0.2
146 1 0.3 0.5 0.2
147 1 0.3 0.4 0.3
148 1 0.2 0.5 0.3
165 1 0.2 0.6 0.2
167 1 0.3 0.6 0.3
149 1 0.4 0.4 0.2
150 1 0.5 0.5 0.2
151 1 0.5 0.4 0.3
152 1 0.4 0.5 0.3
153 1 0.6 0.4 0.2
156 1 0.6 0.5 0.3
169 1 0.4 0.6 0.2
171 1 0.5 0.6 0.3
173 1 0.6 0.6 0.2
154 1 0.7 0.5 0.2
155 1 0.7 0.4 0.3
175 1 0.7 0.6 0.3
157 1 0.8 0.4 0.2
158 1 0.9 0.5 0.2
159 1 0.9 0.4 0.3
160 1 0.8 0.5 0.3
177 1 0.8 0.6 0.2
179 1 0.9 0.6 0.3
162 1 0.1 0.7 0.2
164 1 0 0.7 0.3
166 1 0.3 0.7 0.2
168 1 0.2 0.7 0.3
170 1 0.5 0.7 0.2
172 1 0.4 0.7 0.3
176 1 0.6 0.7 0.3
174 1 0.7 0.7 0.2
178 1 0.9 0.7 0.2
180 1 0.8 0.7 0.3
181 1 0 0.8 0.2
182 1 0.1 0.9 0.2
183 1 0.1 0.8 0.3
184 1 0 0.9 0.3
185 1 0.2 0.8 0.2
186 1 0.3 0.9 0.2
187 1 0.3 0.8 0.3
188 1 0.2 0.9 0.3
189 1 0.4 0.8 0.2
190 1 0.5 0.9 0.2
191 1 0.5 0.8 0.3
192 1 0.4 0.9 0.3
193 1 0.6 0.8 0.2
196 1 0.6 0.9 0.3
194 1 0.7 0.9 0.2
195 1 0.7 0.8 0.3
197 1 0.8 0.8 0.2
198 1 0.9 0.9 0.2
199 1 0.9 0.8 0.3
200 1 0.8 0.9 0.3
201 1 0 0 0.4
202 1 0.1 0.1 0.4
203 1 0.1 0 0.5
204 1 0 0.1 0.5
301 1 0 0 0.6
302 1 0.1 0.1 0.6
205 1 0.2 0 0.4
206 1 0.3 0.1 0.4
207 1 0.3 0 0.5
208 1 0.2 0.1 0.5
305 1 0.2 0 0.6
306 1 0.3 0.1 0.6
209 1 0.4 0 0.4
210 1 0.5 0.1 0.4
211 1 0.5 0 0.5
212 1 0.4 0.1 0.5
213 1 0.6 0 0.4
216 1 0.6 0.1 0.5
309 1 0.4 0 0.6
310 1 0.5 0.1 0.6
313 1 0.6 0 0.6
214 1 0.7 0.1 0.4
215 1 0.7 0 0.5
314 1 0.7 0.1 0.6
217 1 0.8 0 0.4
218 1 0.9 0.1 0.4
219 1 0.9 0 0.5
220 1 0.8 0.1 0.5
317 1 0.8 0 0.6
318 1 0.9 0.1 0.6
221 1 0 0.2 0.4
222 1 0.1 0.3 0.4
223 1 0.1 0.2 0.5
224 1 0 0.3 0.5
321 1 0 0.2 0.6
322 1 0.1 0.3 0.6
225 1 0.2 0.2 0.4
226 1 0.3 0.3 0.4
227 1 0.3 0.2 0.5
228 1 0.2 0.3 0.5
325 1 0.2 0.2 0.6
326 1 0.3 0.3 0.6
229 1 0.4 0.2 0.4
230 1 0.5 0.3 0.4
231 1 0.5 0.2 0.5
232 1 0.4 0.3 0.5
233 1 0.6 0.2 0.4
236 1 0.6 0.3 0.5
329 1 0.4 0.2 0.6
330 1 0.5 0.3 0.6
333 1 0.6 0.2 0.6
234 1 0.7 0.3 0.4
235 1 0.7 0.2 0.5
334 1 0.7 0.3 0.6
237 1 0.8 0.2 0.4
238 1 0.9 0.3 0.4
239 1 0.9 0.2 0.5
240 1 0.8 0.3 0.5
337 1 0.8 0.2 0.6
338 1 0.9 0.3 0.6
241 1 0 0.4 0.4
242 1 0.1 0.5 0.4
243 1 0.1 0.4 0.5
244 1 0 0.5 0.5
261 1 0 0.6 0.4
263 1 0.1 0.6 0.5
341 1 0 0.4 0.6
342 1 0.1 0.5 0.6
361 1 0 0.6 0.6
245 1 0.2 0.4 0.4
246 1 0.3 0.5 0.4
247 1 0.3 0.4 0.5
248 1 0.2 0.5 0.5
265 1 0.2 0.6 0.4
267 1 0.3 0.6 0.5
345 1 0.2 0.4 0.6
346 1 0.3 0.5 0.6
365 1 0.2 0.6 0.6
249 1 0.4 0.4 0.4
250 1 0.5 0.5 0.4
251 1 0.5 0.4 0.5
252 1 0.4 0.5 0.5
253 1 0.6 0.4 0.4
256 1 0.6 0.5 0.5
269 1 0.4 0.6 0.4
271 1 0.5 0.6 0.5
273 1 0.6 0.6 0.4
349 1 0.4 0.4 0.6
350 1 0.5 0.5 0.6
353 1 0.6 0.4 0.6
369 1 0.4 0.6 0.6
373 1 0.6 0.6 0.6
254 1 0.7 0.5 0.4
255 1 0.7 0.4 0.5
275 1 0.7 0.6 0.5
354 1 0.7 0.5 0.6
257 1 0.8 0.4 0.4
258 1 0.9 0.5 0.4
259 1 0.9 0.4 0.5
260 1 0.8 0.5 0.5
277 1 0.8 0.6 0.4
279 1 0.9 0.6 0.5
357 1 0.8 0.4 0.6
358 1 0.9 0.5 0.6
377 1 0.8 0.6 0.6
262 1 0.1 0.7 0.4
264 1 0 0.7 0.5
362 1 0.1 0.7 0.6
266 1 0.3 0.7 0.4
268 1 0.2 0.7 0.5
366 1 0.3 0.7 0.6
270 1 0.5 0.7 0.4
272 1 0.4 0.7 0.5
276 1 0.6 0.7 0.5
370 1 0.5 0.7 0.6
274 1 0.7 0.7 0.4
374 1 0.7 0.7 0.6
278 1 0.9 0.7 0.4
280 1 0.8 0.7 0.5
378 1 0.9 0.7 0.6
281 1 0 0.8 0.4
282 1 0.1 0.9 0.4
283 1 0.1 0.8 0.5
284 1 0 0.9 0.5
381 1 0 0.8 0.6
382 1 0.1 0.9 0.6
285 1 0.2 0.8 0.4
286 1 0.3 0.9 0.4
287 1 0.3 0.8 0.5
288 1 0.2 0.9 0.5
385 1 0.2 0.8 0.6
386 1 0.3 0.9 0.6
289 1 0.4 0.8 0.4
290 1 0.5 0.9 0.4
291 1 0.5 0.8 0.5
292 1 0.4 0.9 0.5
293 1 0.6 0.8 0.4
296 1 0.6 0.9 0.5
389 1 0.4 0.8 0.6
390 1 0.5 0.9 0.6
393 1 0.6 0.8 0.6
294 1 0.7 0.9 0.4
295 1 0.7 0.8 0.5
394 1 0.7 0.9 0.6
297 1 0.8 0.8 0.4
298 1 0.9 0.9 0.4
299 1 0.9 0.8 0.5
300 1 0.8 0.9 0.5
397 1 0.8 0.8 0.6
398 1 0.9 0.9 0.6
303 1 0.1 0 0.7
304 1 0 0.1 0.7
307 1 0.3 0 0.7
308 1 0.2 0.1 0.7
311 1 0.5 0 0.7
312 1 0.4 0.1 0.7
316 1 0.6 0.1 0.7
315 1 0.7 0 0.7
319 1 0.9 0 0.7
320 1 0.8 0.1 0.7
323 1 0.1 0.2 0.7
324 1 0 0.3 0.7
327 1 0.3 0.2 0.7
328 1 0.2 0.3 0.7
331 1 0.5 0.2 0.7
332 1 0.4 0.3 0.7
336 1 0.6 0.3 0.7
335 1 0.7 0.2 0.7
339 1 0.9 0.2 0.7
340 1 0.8 0.3 0.7
343 1 0.1 0.4 0.7
344 1 0 0.5 0.7
363 1 0.1 0.6 0.7
347 1 0.3 0.4 0.7
348 1 0.2 0.5 0.7
367 1 0.3 0.6 0.7
351 1 0.5 0.4 0.7
352 1 0.4 0.5 0.7
356 1 0.6 0.5 0.7
371 1 0.5 0.6 0.7
355 1 0.7 0.4 0.7
375 1 0.7 0.6 0.7
359 1 0.9 0.4 0.7
360 1 0.8 0.5 0.7
379 1 0.9 0.6 0.7
364 1 0 0.7 0.7
368 1 0.2 0.7 0.7
372 1 0.4 0.7 0.7
376 1 0.6 0.7 0.7
380 1 0.8 0.7 0.7
383 1 0.1 0.8 0.7
384 1 0 0.9 0.7
387 1 0.3 0.8 0.7
388 1 0.2 0.9 0.7
391 1 0.5 0.8 0.7
392 1 0.4 0.9 0.7
396 1 0.6 0.9 0.7
395 1 0.7 0.8 0.7
399 1 0.9 0.8 0.7
400 1 0.8 0.9 0.7
401 1 0 0 0.8
402 1 0.1 0.1 0.8
403 1 0.1 0 0.9
404 1 0 0.1 0.9
405 1 0.2 0 0.8
406 1 0.3 0.1 0.8
407 1 0.3 0 0.9
408 1 0.2 0.1 0.9
409 1 0.4 0 0.8
410 1 0.5 0.1 0.8
411 1 0.5 0 0.9
412 1 0.4 0.1 0.9
413 1 0.6 0 0.8
416 1 0.6 0.1 0.9
414 1 0.7 0.1 0.8
415 1 0.7 0 0.9
417 1 0.8 0 0.8
418 1 0.9 0.1 0.8
419 1 0.9 0 0.9
420 1 0.8 0.1 0.9
421 1 0 0.2 0.8
422 1 0.1 0.3 0.8
423 1 0.1 0.2 0.9
424 1 0 0.3 0.9
425 1 0.2 0.2 0.8
426 1 0.3 0.3 0.8
427 1 0.3 0.2 0.9
428 1 0.2 0.3 0.9
429 1 0.4 0.2 0.8
430 1 0.5 0.3 0.8
431 1 0.5 0.2 0.9
432 1 0.4 0.3 0.9
433 1 0.6 0.2 0.8
436 1 0.6 0.3 0.9
434 1 0.7 0.3 0.8
435 1 0.7 0.2 0.9
437 1 0.8 0.2 0.8
438 1 0.9 0.3 0.8
439 1 0.9 0.2 0.9
440 1 0.8 0.3 0.9
441 1 0 0.4 0.8
442 1 0.1 0.5 0.8
443 1 0.1 0.4 0.9
444 1 0 0.5 0.9
461 1 0 0.6 0.8
463 1 0.1 0.6 0.9
445 1 0.2 0.4 0.8
446 1 0.3 0.5 0.8
447 1 0.3 0.4 0.9
448 1 0.2 0.5 0.9
465 1 0.2 0.6 0.8
467 1 0.3 0.6 0.9
449 1 0.4 0.4 0.8
450 1 0.5 0.5 0.8
451 1 0.5 0.4 0.9
452 1 0.4 0.5 0.9
453 1 0.6 0.4 0.8
456 1 0.6 0.5 0.9
469 1 0.4 0.6 0.8
471 1 0.5 0.6 0.9
473 1 0.6 0.6 0.8
454 1 0.7 0.5 0.8
455 1 0.7 0.4 0.9
475 1 0.7 0.6 0.9
457 1 0.8 0.4 0.8
458 1 0.9 0.5 0.8
459 1 0.9 0.4 0.9
460 1 0.8 0.5 0.9
477 1 0.8 0.6 0.8
479 1 0.9 0.6 0.9
462 1 0.1 0.7 0.8
464 1 0 0.7 0.9
466 1 0.3 0.7 0.8
468 1 0.2 0.7 0.9
470 1 0.5 0.7 0.8
472 1 0.4 0.7 0.9
476 1 0.6 0.7 0.9
474 1 0.7 0.7 0.8
478 1 0.9 0.7 0.8
480 1 0.8 0.7 0.9
481 1 0 0.8 0.8
482 1 0.1 0.9 0.8
483 1 0.1 0.8 0.9
484 1 0 0.9 0.9
485 1 0.2 0.8 0.8
486 1 0.3 0.9 0.8
487 1 0.3 0.8 0.9
488 1 0.2 0.9 0.9
489 1 0.4 0.8 0.8
490 1 0.5 0.9 0.8
491 1 0.5 0.8 0.9
492 1 0.4 0.9 0.9
493 1 0.6 0.8 0.8
496 1 0.6 0.9 0.9
494 1 0.7 0.9 0.8
495 1 0.7 0.8 0.9
497 1 0.8 0.8 0.8
498 1 0.9 0.9 0.8
499 1 0.9 0.8 0.9
500 1 0.8 0.9 0.9
ITEM: TIMESTEP
5000
ITEM: NUMBER OF ATOMS
500
ITEM: BOX BOUNDS pp pp pp
0.0000000000000000e+00 2.8000000000000000e+01
0.0000000000000000e+00 2.8000000000000000e+01
0.0000000000000000e+00 2.8000000000000000e+01
ITEM: ATOMS id type xs ys zs
1 1 -0.00140649 -0.00185288 0.00304682
2 1 0.102433 0.0960623 -0.000367073
3 1 0.105452 0.0040599 0.106974
4 1 0.00227772 0.0984859 0.0970251
5 1 0.207089 0.00772532 0.00220585
6 1 0.309851 0.0943186 0.000784441
7 1 0.30265 -0.00422538 0.106382
8 1 0.204521 0.0992399 0.0938705
9 1 0.406451 0.00125385 -0.00445338
10 1 0.502211 0.103214 0.00380344
11 1 0.499396 0.00105833 0.102705
12 1 0.403717 0.0994324 0.0948201
13 1 0.605085 0.00251462 0.00695064
16 1 0.599067 0.0944929 0.0986203
14 1 0.704256 0.101956 8.83261e-05
15 1 0.700881 -0.00147938 0.103941
17 1 0.805598 0.00232159 0.00365895
18 1 0.904028 0.103049 -0.0003627
19 1 0.903285 0.00329404 0.104467
20 1 0.802735 0.100964 0.106038
21 1 0.00065273 0.198413 -0.00260004
22 1 0.101539 0.307678 0.00132575
23 1 0.106642 0.201216 0.0940603
24 1 0.00241027 0.298183 0.0987899
25 1 0.206832 0.195191 -0.00223995
26 1 0.300222 0.300153 -0.00345695
27 1 0.298107 0.199494 0.0951966
28 1 0.203841 0.298755 0.0969158
29 1 0.40557 0.202184 -0.00234572
30 1 0.498984 0.30063 -0.00134092
31 1 0.504108 0.201037 0.0992218
32 1 0.399208 0.294024 0.0958494
33 1 0.607718 0.193391 -0.00366496
36 1 0.602335 0.306688 0.0970239
34 1 0.699789 0.302228 -0.00103154
35 1 0.700136 0.196393 0.101858
37 1 0.798812 0.199176 0.00538821
38 1 0.896921 0.295089 0.00531116
39 1 0.90143 0.196222 0.0995191
40 1 0.795711 0.294372 0.099856
41 1 0.00010713 0.397988 0.00381336
42 1 0.104206 0.504866 -0.00575001
43 1 0.0984017 0.394965 0.10331
44 1 0.00839718 0.49814 0.0958461
61 1 0.00647363 0.600064 -0.000148532
63 1 0.103503 0.597089 0.099852
45 1 0.201776 0.403064 -0.0070069
46 1 0.294954 0.497995 0.00465778
47 1 0.292057 0.398099 0.103067
48 1 0.193773 0.49918 0.0981826
65 1 0.207133 0.597416 0.0043322
67 1 0.29754 0.595347 0.11015
49 1 0.395661 0.39604 -0.0026965
50 1 0.503341 0.493229 0.000174822
51 1 0.498991 0.394147 0.0975696
52 1 0.395685 0.493531 0.0967352
53 1 0.61009 0.402582 -0.0070313
56 1 0.603318 0.495447 0.101423
69 1 0.395545 0.594593 0.0009719
71 1 0.492646 0.596661 0.0952605
73 1 0.601526 0.602362 0.00090401
54 1 0.701796 0.504076 0.010461
55 1 0.708455 0.397114 0.0961727
75 1 0.705476 0.600746 0.104416
57 1 0.804782 0.395188 -0.00782204
58 1 0.907577 0.500516 -0.00542158
59 1 0.89783 0.400827 0.0945381
60 1 0.807982 0.499798 0.0964653
77 1 0.804132 0.59887 0.000782406
79 1 0.907478 0.599842 0.103781
62 1 0.105031 0.697272 -0.00137073
64 1 -0.00044479 0.697983 0.10426
66 1 0.298547 0.697593 0.00365208
68 1 0.203252 0.706884 0.0979369
70 1 0.493713 0.701261 0.00441183
72 1 0.397253 0.695267 0.102604
76 1 0.59075 0.703486 0.099202
74 1 0.699693 0.700728 -0.000467036
78 1 0.896251 0.699876 0.00159986
80 1 0.805311 0.693646 0.104273
81 1 -0.00758854 0.791917 0.00251945
82 1 0.104524 0.907989 0.00497702
83 1 0.0943608 0.795557 0.104005
84 1 0.00428001 0.910696 0.106055
85 1 0.205749 0.803998 -0.00195961
86 1 0.306032 0.903952 0.00311311
87 1 0.303967 0.804152 0.103307
88 1 0.197423 0.902907 0.104725
89 1 0.395047 0.801145 -0.0025671
90 1 0.507347 0.899177 0.00342405
91 1 0.486295 0.801956 0.0948228
92 1 0.401209 0.907401 0.101275
93 1 0.607409 0.803517 0.00632543
96 1 0.602658 0.900696 0.106011
94 1 0.697698 0.906745 0.00426093
95 1 0.702471 0.793831 0.103716
97 1 0.800362 0.798321 -0.000445592
98 1 0.902419 0.898686 0.000241178
99 1 0.905433 0.794565 0.102765
100 1 0.805711 0.901733 0.100191
101 1 0.00317647 0.00221366 0.203006
102 1 0.102956 0.107181 0.200578
103 1 0.104548 -0.00225889 0.300542
104 1 0.000826219 0.102709 0.309323
105 1 0.20051 0.000111183 0.20051
106 1 0.305766 0.0989334 0.199476
107 1 0.295888 0.00712975 0.296505
108 1 0.20405 0.100142 0.297758
109 1 0.401184 0.00264411 0.206166
110 1 0.503242 0.0984942 0.197014
111 1 0.495829 0.00327521 0.302772
112 1 0.396239 0.104992 0.304478
113 1 0.592953 -0.00743874 0.203172
116 1 0.599641 0.0965789 0.297846
114 1 0.695956 0.0963951 0.202281
115 1 0.701142 -0.00131879 0.298794
117 1 0.801309 0.0055137 0.198121
118 1 0.905341 0.100118 0.206015
119 1 0.902926 -0.00641767 0.301348
120 1 0.797829 0.0984366 0.30534
121 1 -0.0066786 0.200414 0.205761
122 1 0.094243 0.300853 0.204765
123 1 0.107059 0.199443 0.302689
124 1 -0.00120353 0.298018 0.300537
125 1 0.200186 0.207883 0.197161
126 1 0.302455 0.293376 0.198113
127 1 0.304424 0.197007 0.294823
128 1 0.207187 0.293381 0.300205
129 1 0.406031 0.197289 0.196166
130 1 0.497213 0.297626 0.194388
131 1 0.501085 0.195737 0.297493
132 1 0.403422 0.29863 0.303891
133 1 0.600323 0.19775 0.197606
136 1 0.603002 0.302902 0.293026
134 1 0.693668 0.295627 0.1965
135 1 0.700932 0.202838 0.295102
137 1 0.801802 0.197298 0.199343
138 1 0.894674 0.298721 0.19383
139 1 0.892379 0.200891 0.30125
140 1 0.797566 0.302085 0.291087
141 1 -0.000713155 0.403393 0.196172
142 1 0.101419 0.492057 0.197371
143 1 0.103587 0.400478 0.302041
144 1 0.00135864 0.49971 0.306762
161 1 0.00775376 0.595192 0.203525
163 1 0.104248 0.599713 0.307505
145 1 0.200951 0.394993 0.204948
146 1 0.299135 0.494237 0.196633
147 1 0.30208 0.39795 0.29753
148 1 0.198533 0.500354 0.298007
165 1 0.193612 0.597595 0.201903
167 1 0.294414 0.594716 0.298092
149 1 0.396155 0.395288 0.192228
150 1 0.500899 0.496589 0.194806
151 1 0.499125 0.396367 0.292574
152 1 0.399749 0.498867 0.2887
153 1 0.606035 0.401692 0.19641
156 1 0.596006 0.496252 0.295049
169 1 0.397748 0.599584 0.199611
171 1 0.498669 0.599819 0.29735
173 1 0.596509 0.599751 0.204241
154 1 0.699025 0.50149 0.203337
155 1 0.698597 0.39849 0.298075
175 1 0.692069 0.601062 0.30408
157 1 0.79785 0.40138 0.194896
158 1 0.911693 0.503145 0.197247
159 1 0.900918 0.406217 0.302494
160 1 0.793662 0.502731 0.306292
177 1 0.799318 0.590677 0.203319
179 1 0.899148 0.592832 0.306161
162 1 0.0993678 0.698748 0.211704
164 1 -0.00513967 0.695671 0.303191
166 1 0.300961 0.696952 0.203425
168 1 0.20189 0.698781 0.302981
170 1 0.493412 0.694857 0.201932
172 1 0.397713 0.703482 0.300864
176 1 0.598685 0.701327 0.294726
174 1 0.696232 0.697428 0.201879
178 1 0.898487 0.6915 0.203649
180 1 0.793521 0.695272 0.302805
181 1 -0.000914288 0.794011 0.200101
182 1 0.0949548 0.89605 0.203882
183 1 0.104036 0.800268 0.30566
184 1 0.00380345 0.897477 0.302943
185 1 0.199021 0.797729 0.201086
186 1 0.302429 0.900528 0.201841
187 1 0.295557 0.800438 0.301481
188 1 0.198354 0.894573 0.299341
189 1 0.40008 0.79586 0.201911
190 1 0.490357 0.899191 0.207926
191 1 0.504357 0.805282 0.303045
192 1 0.393721 0.901891 0.301688
193 1 0.594794 0.802386 0.202511
196 1 0.599991 0.898164 0.301572
194 1 0.707093 0.899906 0.204326
195 1 0.698118 0.800171 0.296857
197 1 0.807332 0.794278 0.203323
198 1 0.894842 0.893074 0.199559
199 1 0.901955 0.795972 0.306984
200 1 0.798374 0.891785 0.304988
201 1 -0.00221466 -0.00803926 0.402179
202 1 0.0999291 0.102101 0.400472
203 1 0.100887 0.000217259 0.499272
204 1 -0.00563324 0.101231 0.501925
301 1 0.0107506 0.00216367 0.605426
302 1 0.0956368 0.10603 0.599483
205 1 0.195748 -0.00203522 0.40057
206 1 0.296623 0.0943392 0.401552
207 1 0.2919 -0.00847674 0.497237
208 1 0.196022 0.0971437 0.499375
305 1 0.192531 -0.00557115 0.608009
306 1 0.293612 0.0927255 0.595089
209 1 0.396236 0.00410661 0.400871
210 1 0.501857 0.10359 0.393167
211 1 0.50109 0.00181621 0.501154
212 1 0.393238 0.0922216 0.499334
213 1 0.597107 -0.000144973 0.403044
216 1 0.597593 0.105063 0.495181
309 1 0.393712 -0.0027535 0.605015
310 1 0.495575 0.104763 0.594981
313 1 0.60184 0.00913691 0.595474
214 1 0.696652 0.0978158 0.399126
215 1 0.69424 0.0102651 0.49905
314 1 0.70145 0.101441 0.601774
217 1 0.801469 0.0035312 0.405002
218 1 0.900266 0.103041 0.40458
219 1 0.898162 -2.25191e-06 0.495056
220 1 0.799075 0.10072 0.498695
317 1 0.796705 0.0016719 0.601471
318 1 0.898153 0.0949303 0.59567
221 1 -0.00278399 0.207072 0.398395
222 1 0.09721 0.304343 0.398576
223 1 0.0930873 0.199921 0.493144
224 1 -0.00506823 0.301509 0.500849
321 1 -0.00174988 0.206971 0.597777
322 1 0.0927419 0.300507 0.602255
225 1 0.197058 0.194006 0.401946
226 1 0.302409 0.298303 0.39288
227 1 0.297205 0.20758 0.50063
228 1 0.193285 0.295376 0.500442
325 1 0.196001 0.201043 0.598096
326 1 0.29215 0.311156 0.592805
229 1 0.400928 0.199073 0.404702
230 1 0.500271 0.296083 0.391829
231 1 0.498309 0.20145 0.498997
232 1 0.398201 0.301685 0.495667
233 1 0.59717 0.201648 0.390275
236 1 0.598648 0.297104 0.49065
329 1 0.397554 0.203604 0.593077
330 1 0.497669 0.304952 0.601541
333 1 0.595721 0.205966 0.592893
234 1 0.695744 0.29813 0.395956
235 1 0.697861 0.201612 0.49656
334 1 0.705877 0.303064 0.595222
237 1 0.793097 0.199609 0.393882
238 1 0.891781 0.29988 0.394138
239 1 0.899198 0.200284 0.498932
240 1 0.797627 0.29818 0.493225
337 1 0.792944 0.199978 0.595189
338 1 0.898165 0.303014 0.592595
241 1 -0.00249717 0.398213 0.404459
242 1 0.103383 0.499441 0.401738
243 1 0.0944072 0.401984 0.497578
244 1 -0.00286937 0.499081 0.503705
261 1 -0.00260418 0.596774 0.401105
263 1 0.0936229 0.595418 0.499163
341 1 -0.00259997 0.396602 0.597682
342 1 0.0971862 0.49813 0.599147
361 1 0.00243715 0.599855 0.602328
245 1 0.197616 0.402435 0.398043
246 1 0.300216 0.502403 0.39306
247 1 0.298591 0.406551 0.497478
248 1 0.202139 0.503987 0.501027
265 1 0.199134 0.600063 0.404819
267 1 0.305418 0.600326 0.493386
345 1 0.190659 0.402949 0.599962
346 1 0.299086 0.500732 0.595784
365 1 0.208276 0.603884 0.600787
249 1 0.402243 0.405575 0.395119
250 1 0.499146 0.493569 0.39129
251 1 0.502024 0.395902 0.491351
252 1 0.396308 0.493882 0.496696
253 1 0.596313 0.398291 0.39826
256 1 0.59589 0.500833 0.497327
269 1 0.401382 0.598972 0.393529
271 1 0.493067 0.596335 0.495131
273 1 0.596777 0.598694 0.396182
349 1 0.394804 0.401978 0.601125
350 1 0.492246 0.496246 0.592075
353 1 0.595406 0.39938 0.603841
369 1 0.401944 0.595933 0.60083
373 1 0.588774 0.596911 0.59633
254 1 0.694833 0.497075 0.401264
255 1 0.692213 0.405075 0.505209
275 1 0.693118 0.591382 0.506251
354 1 0.700568 0.501191 0.605139
257 1 0.794963 0.399289 0.399194
258 1 0.894777 0.497808 0.404916
259 1 0.89506 0.399982 0.498768
260 1 0.798848 0.49609 0.501046
277 1 0.797794 0.596938 0.417767
279 1 0.906724 0.600689 0.508778
357 1 0.798877 0.403988 0.59634
358 1 0.898611 0.502096 0.603531
377 1 0.801697 0.596951 0.60436
262 1 0.0940912 0.698479 0.402694
264 1 0.00269392 0.698061 0.500316
362 1 0.101132 0.700476 0.603326
266 1 0.297866 0.695501 0.399403
268 1 0.195026 0.696132 0.502631
366 1 0.300945 0.699737 0.595819
270 1 0.506298 0.703349 0.400496
272 1 0.403088 0.696363 0.494179
276 1 0.597496 0.691509 0.498889
370 1 0.496266 0.698397 0.593006
274 1 0.696793 0.695275 0.402424
374 1 0.692438 0.689166 0.600607
278 1 0.896908 0.69576 0.404828
280 1 0.798179 0.69955 0.505614
378 1 0.901927 0.699858 0.60031
281 1 -0.00246571 0.796158 0.399212
282 1 0.0979052 0.893683 0.405385
283 1 0.0998512 0.793275 0.499598
284 1 0.00534944 0.895608 0.504315
381 1 -0.00066291 0.796175 0.601117
382 1 0.0984685 0.889163 0.604565
285 1 0.195256 0.792906 0.405247
286 1 0.296482 0.897459 0.395606
287 1 0.294975 0.797026 0.496879
288 1 0.196356 0.894454 0.499284
385 1 0.196698 0.800074 0.599421
386 1 0.287149 0.89965 0.60445
289 1 0.406055 0.800662 0.397954
290 1 0.499535 0.900221 0.398317
291 1 0.500517 0.803512 0.493867
292 1 0.399757 0.905977 0.501309
293 1 0.610676 0.799407 0.403675
296 1 0.597843 0.896152 0.501355
389 1 0.403549 0.800975 0.596005
390 1 0.503016 0.907238 0.600666
393 1 0.597314 0.794963 0.596975
294 1 0.70286 0.901499 0.412792
295 1 0.701651 0.798644 0.509803
394 1 0.691278 0.912108 0.591731
297 1 0.800591 0.79077 0.405286
298 1 0.90121 0.896757 0.404361
299 1 0.899614 0.799025 0.49809
300 1 0.805354 0.898908 0.498954
397 1 0.801289 0.804294 0.599992
398 1 0.90319 0.903994 0.602007
303 1 0.0990627 0.0039213 0.708481
304 1 -0.0022423 0.106963 0.694851
307 1 0.295563 -0.00138988 0.701286
308 1 0.200867 0.10122 0.701918
311 1 0.505874 0.00250286 0.697918
312 1 0.407309 0.106031 0.696346
316 1 0.608811 0.102078 0.698832
315 1 0.698702 -0.000950551 0.69421
319 1 0.900027 0.00276358 0.699643
320 1 0.805269 0.104899 0.700499
323 1 0.101693 0.204935 0.696716
324 1 0.0012879 0.305203 0.702302
327 1 0.303397 0.1978 0.698441
328 1 0.198027 0.301592 0.696159
331 1 0.497073 0.210497 0.702365
332 1 0.397228 0.302288 0.696847
336 1 0.601497 0.303444 0.700667
335 1 0.70159 0.204157 0.694808
339 1 0.903668 0.210028 0.694911
340 1 0.797811 0.298673 0.702901
343 1 0.0960388 0.402701 0.700128
344 1 0.00101681 0.506898 0.693615
363 1 0.109065 0.599198 0.698048
347 1 0.298532 0.398011 0.702085
348 1 0.205217 0.498753 0.69536
367 1 0.306183 0.602928 0.697723
351 1 0.496544 0.402915 0.701219
352 1 0.397609 0.500734 0.700014
356 1 0.594386 0.502272 0.707168
371 1 0.494458 0.600868 0.700332
355 1 0.702002 0.398814 0.697472
375 1 0.694784 0.596077 0.704152
359 1 0.907418 0.402441 0.698025
360 1 0.799981 0.493893 0.702302
379 1 0.892818 0.607972 0.703002
364 1 0.0035724 0.694674 0.698256
368 1 0.203525 0.702279 0.703502
372 1 0.400533 0.706675 0.698179
376 1 0.5924 0.700807 0.696216
380 1 0.795818 0.70126 0.701528
383 1 0.0922748 0.7962 0.701914
384 1 0.00541695 0.903693 0.698527
387 1 0.299591 0.798415 0.695404
388 1 0.194936 0.89344 0.706897
391 1 0.499749 0.808477 0.697429
392 1 0.400045 0.903903 0.704348
396 1 0.606015 0.90292 0.702347
395 1 0.696296 0.803485 0.691126
399 1 0.903505 0.802124 0.702517
400 1 0.795701 0.902491 0.699521
401 1 -0.00357119 -0.000470782 0.79977
402 1 0.102016 0.101505 0.802869
403 1 0.0994575 -0.000467359 0.907016
404 1 0.00294921 0.103024 0.894981
405 1 0.196219 -0.00507196 0.801674
406 1 0.298399 0.100689 0.79858
407 1 0.300526 -0.00175887 0.889255
408 1 0.201431 0.101452 0.899913
409 1 0.397226 0.00357396 0.794153
410 1 0.502917 0.104894 0.79153
411 1 0.505828 0.00849449 0.902818
412 1 0.401485 0.0948673 0.893738
413 1 0.603431 0.00280824 0.800562
416 1 0.601572 0.099969 0.891801
414 1 0.706864 0.103681 0.798539
415 1 0.701611 0.0016789 0.903626
417 1 0.805477 0.00104526 0.798238
418 1 0.90072 0.101363 0.802048
419 1 0.900885 0.00105717 0.90566
420 1 0.803138 0.0991076 0.901349
421 1 -0.00174961 0.198158 0.802662
422 1 0.0975712 0.297771 0.802228
423 1 0.100945 0.1984 0.906235
424 1 -0.00106604 0.298078 0.89974
425 1 0.203025 0.203242 0.800996
426 1 0.299521 0.304736 0.801184
427 1 0.299899 0.198754 0.897061
428 1 0.198784 0.300308 0.902931
429 1 0.396957 0.203928 0.801228
430 1 0.499057 0.301418 0.802559
431 1 0.502033 0.197858 0.899226
432 1 0.400903 0.305011 0.89975
433 1 0.603323 0.203609 0.794463
436 1 0.606911 0.29857 0.897132
434 1 0.702018 0.306161 0.795246
435 1 0.704319 0.201177 0.897573
437 1 0.796441 0.202097 0.797278
438 1 0.901314 0.303095 0.800789
439 1 0.898234 0.203382 0.904475
440 1 0.794416 0.302464 0.898743
441 1 0.000637591 0.400619 0.799034
442 1 0.101715 0.501907 0.796036
443 1 0.0997619 0.400616 0.893308
444 1 -0.00163789 0.502494 0.89178
461 1 -0.000363427 0.601179 0.796411
463 1 0.110336 0.598108 0.899476
445 1 0.197232 0.401443 0.79743
446 1 0.299299 0.492037 0.800201
447 1 0.297999 0.397656 0.902813
448 1 0.206719 0.502377 0.900752
465 1 0.206784 0.602931 0.799857
467 1 0.303353 0.602432 0.899592
449 1 0.401381 0.401804 0.801285
450 1 0.499526 0.503086 0.801478
451 1 0.509738 0.404663 0.900428
452 1 0.39968 0.495607 0.900882
453 1 0.604831 0.404193 0.800155
456 1 0.609691 0.504178 0.898179
469 1 0.398407 0.594582 0.803797
471 1 0.501629 0.596779 0.903661
473 1 0.596251 0.602057 0.80242
454 1 0.704202 0.500299 0.796657
455 1 0.70688 0.412172 0.897143
475 1 0.707843 0.601939 0.899372
457 1 0.80474 0.402832 0.797982
458 1 0.907874 0.499539 0.791181
459 1 0.901786 0.400559 0.896918
460 1 0.805118 0.506455 0.904252
477 1 0.799113 0.598699 0.799256
479 1 0.904302 0.601279 0.896496
462 1 0.104983 0.700679 0.798828
464 1 0.00034629 0.700845 0.900431
466 1 0.308565 0.698746 0.799968
468 1 0.206813 0.700383 0.906805
470 1 0.495315 0.697153 0.800204
472 1 0.402461 0.694606 0.903679
476 1 0.604356 0.70593 0.900447
474 1 0.698037 0.705873 0.796981
478 1 0.897278 0.708014 0.802513
480 1 0.801341 0.7032 0.901705
481 1 -0.00310833 0.806544 0.800171
482 1 0.0958247 0.895027 0.806255
483 1 0.103626 0.801576 0.90573
484 1 0.000157017 0.89482 0.905155
485 1 0.199217 0.796754 0.806859
486 1 0.298506 0.895601 0.794633
487 1 0.305156 0.798242 0.897164
488 1 0.205813 0.904203 0.905196
489 1 0.405338 0.796028 0.797361
490 1 0.502675 0.902207 0.794573
491 1 0.499001 0.802975 0.906872
492 1 0.402388 0.905034 0.895624
493 1 0.599696 0.800391 0.800465
496 1 0.599492 0.903669 0.90224
494 1 0.696282 0.90228 0.804149
495 1 0.702896 0.807333 0.900534
497 1 0.800705 0.808555 0.793297
498 1 0.900093 0.902737 0.806161
499 1 0.896997 0.804657 0.900682
500 1 0.801849 0.905413 0.906988
ITEM: TIMESTEP
10000
ITEM: NUMBER OF ATOMS
500
ITEM: BOX BOUNDS pp pp pp
0.0000000000000000e+00 2.8000000000000000e+01
0.0000000000000000e+00 2.8000000000000000e+01
0.0000000000000000e+00 2.8000000000000000e+01
ITEM: ATOMS id type xs ys zs
1 1 0.00157704 0.0023694 0.00891764
2 1 0.100539 0.0984422 0.000279994
3 1 0.102299 0.00145184 0.104776
4 1 0.00122939 0.107163 0.102494
5 1 0.20262 0.00906215 -0.00230673
6 1 0.294475 0.10417 -0.00549845
7 1 0.29984 0.00767584 0.10151
8 1 0.20211 0.0988681 0.101025
9 1 0.397123 0.00566324 -0.000310795
10 1 0.497649 0.103222 -0.00319169
11 1 0.50095 -0.000526228 0.0954713
12 1 0.401869 0.102299 0.0963004
13 1 0.601193 0.000271626 -0.00845485
16 1 0.589572 0.103939 0.0993905
14 1 0.691722 0.0989061 -0.000495936
15 1 0.698534 -0.00115502 0.098334
17 1 0.801749 -0.00155211 0.00560422
18 1 0.892811 0.108319 0.00948841
19 1 0.905602 0.00718083 0.104224
20 1 0.792507 0.100671 0.107467
21 1 -0.00176265 0.19563 -3.32738e-05
22 1 0.0905529 0.295809 -0.000111857
23 1 0.105656 0.195544 0.106247
24 1 0.00737182 0.293271 0.106593
25 1 0.194178 0.204758 -0.00119571
26 1 0.293925 0.298024 -0.00015708
27 1 0.295236 0.207176 0.0994942
28 1 0.193732 0.304747 0.0994983
29 1 0.395889 0.204638 -0.001479
30 1 0.500681 0.30445 -0.00194023
31 1 0.502262 0.204996 0.100992
32 1 0.397635 0.30497 0.101702
33 1 0.597557 0.206461 -0.00490322
36 1 0.601617 0.308971 0.099053
34 1 0.70199 0.302067 0.00042562
35 1 0.68898 0.203871 0.099445
37 1 0.789605 0.202211 0.0138018
38 1 0.898737 0.298028 0.00333817
39 1 0.896221 0.207791 0.108058
40 1 0.797553 0.300716 0.104954
41 1 -0.00242444 0.402598 0.00318606
42 1 0.0968415 0.495923 -0.000377379
43 1 0.0962091 0.400291 0.100973
44 1 -0.000447104 0.499957 0.10415
61 1 0.00192744 0.597119 0.00344407
63 1 0.101698 0.605292 0.0992918
45 1 0.193693 0.39702 0.0018446
46 1 0.296132 0.499777 0.00130235
47 1 0.298602 0.401809 0.106622
48 1 0.197247 0.499912 0.0998182
65 1 0.196356 0.600278 -0.000133463
67 1 0.304317 0.596335 0.104864
49 1 0.402371 0.404201 0.00973318
50 1 0.499423 0.499314 0.00158682
51 1 0.501734 0.402532 0.102309
52 1 0.399641 0.504362 0.0987477
53 1 0.598921 0.404966 -0.00328996
56 1 0.600562 0.4977 0.0976692
69 1 0.394994 0.592958 -0.0011988
71 1 0.501419 0.597534 0.0981268
73 1 0.597734 0.597784 -0.00472743
54 1 0.704393 0.497838 -0.00101437
55 1 0.705131 0.395915 0.102211
75 1 0.700344 0.607506 0.0923468
57 1 0.810257 0.399002 -0.00281008
58 1 0.906024 0.505434 0.00536582
59 1 0.898795 0.403614 0.100844
60 1 0.80099 0.505634 0.100482
77 1 0.800764 0.605895 -0.00288043
79 1 0.90288 0.601135 0.101914
62 1 0.0987479 0.700626 0.00511091
64 1 -0.00526504 0.698922 0.0981209
66 1 0.300288 0.698385 -0.00676209
68 1 0.201197 0.705858 0.099648
70 1 0.505991 0.698975 -0.000989295
72 1 0.402271 0.691798 0.0959566
76 1 0.599886 0.697957 0.0974921
74 1 0.705217 0.693205 -0.0100424
78 1 0.898422 0.698039 0.00184137
80 1 0.806945 0.699623 0.0976998
81 1 0.00285289 0.799457 -0.000135485
82 1 0.0994856 0.909382 0.00306399
83 1 0.0928312 0.802681 0.0992528
84 1 -0.00625582 0.904207 0.102186
85 1 0.20207 0.801868 -0.00292923
86 1 0.296607 0.902782 -0.00163669
87 1 0.3019 0.795636 0.0984877
88 1 0.206427 0.893244 0.101882
89 1 0.404775 0.802969 0.00452675
90 1 0.497482 0.905613 -0.00429546
91 1 0.497387 0.794779 0.104723
92 1 0.396403 0.904121 0.0992628
93 1 0.592788 0.803812 0.00170164
96 1 0.595671 0.897589 0.0980721
94 1 0.703221 0.900223 0.00410943
95 1 0.704247 0.792431 0.0906352
97 1 0.802336 0.798667 0.000274332
98 1 0.907701 0.891953 -0.00118603
99 1 0.900582 0.800048 0.102424
100 1 0.804203 0.899002 0.0970588
101 1 0.00150693 0.00130327 0.20358
102 1 0.101212 0.101299 0.200232
103 1 0.0973659 -0.00537743 0.294173
104 1 0.00514698 0.100676 0.295025
105 1 0.20094 -0.00112396 0.19852
106 1 0.305017 0.104251 0.194905
107 1 0.301475 -0.000495643 0.297202
108 1 0.20523 0.0913556 0.289337
109 1 0.398769 -0.00365735 0.196816
110 1 0.494354 0.0997629 0.203284
111 1 0.498802 -0.00153446 0.302863
112 1 0.400467 0.0919353 0.30508
113 1 0.595848 0.00203425 0.197156
116 1 0.601512 0.102678 0.29531
114 1 0.689642 0.104017 0.193808
115 1 0.694602 -0.00697831 0.301795
117 1 0.798509 0.00311035 0.200923